5
Properties=species:S:1:pos:R:3 REF_energy="_JSON [[-194594.07605577738, -194594.07585278043, -194593.28550814156]]" pbc="F F F"
C        0.00000000       0.00000000       0.00000000
I        0.00000000       0.55567000       3.15138000
H        0.00000000       1.03090000      -0.33980000
H        0.89270000      -0.51540000      -0.33980000
H       -0.89270000      -0.51540000      -0.33980000
5
Properties=species:S:1:pos:R:3 REF_energy="_JSON [[-194594.07171801032, -194594.07078030598, -194593.26585607856]]" pbc="F F F"
C        0.00000000       0.00000000       0.00000000
I        0.00000000       1.09446000       3.00702000
H        0.00000000       1.03090000      -0.33980000
H        0.89270000      -0.51540000      -0.33980000
H       -0.89270000      -0.51540000      -0.33980000
5
Properties=species:S:1:pos:R:3 REF_energy="_JSON [[-194594.07666640088, -194594.07665823743, -194593.29127232946]]" pbc="F F F"
C        0.00000000       0.00000000       0.00000000
I        0.00000000       0.00000000       3.20000000
H        0.00000000       1.03090000      -0.33980000
H        0.89270000      -0.51540000      -0.33980000
H       -0.89270000      -0.51540000      -0.33980000
5
Properties=species:S:1:pos:R:3 REF_energy="_JSON [[-194594.0793899885, -194594.07935406946, -194593.21447227412]]" pbc="F F F"
C        0.00000000       0.00000000       0.00000000
I        0.00000000      -2.05692000       2.45134000
H        0.00000000       1.03090000      -0.33980000
H        0.89270000      -0.51540000      -0.33980000
H       -0.89270000      -0.51540000      -0.33980000
5
Properties=species:S:1:pos:R:3 REF_energy="_JSON [[-194594.05909628104, -194594.05636806745, -194593.22800558485]]" pbc="F F F"
C        0.00000000       0.00000000       0.00000000
I        0.00000000       1.60000000       2.77128000
H        0.00000000       1.03090000      -0.33980000
H        0.89270000      -0.51540000      -0.33980000
H       -0.89270000      -0.51540000      -0.33980000
5
Properties=species:S:1:pos:R:3 REF_energy="_JSON [[-194594.03328111122, -194594.02683282905, -194593.16729779897]]" pbc="F F F"
C        0.00000000       0.00000000       0.00000000
I        0.00000000       2.05692000       2.45134000
H        0.00000000       1.03090000      -0.33980000
H        0.89270000      -0.51540000      -0.33980000
H       -0.89270000      -0.51540000      -0.33980000
5
Properties=species:S:1:pos:R:3 REF_energy="_JSON [[-194594.07679892035, -194594.07679592707, -194593.28630597942]]" pbc="F F F"
C        0.00000000       0.00000000       0.00000000
I        0.00000000      -0.55567000       3.15138000
H        0.00000000       1.03090000      -0.33980000
H        0.89270000      -0.51540000      -0.33980000
H       -0.89270000      -0.51540000      -0.33980000
5
Properties=species:S:1:pos:R:3 REF_energy="_JSON [[-194594.0779706426, -194594.07793445146, -194593.2722140189]]" pbc="F F F"
C        0.00000000       0.00000000       0.00000000
I        0.00000000      -1.09446000       3.00702000
H        0.00000000       1.03090000      -0.33980000
H        0.89270000      -0.51540000      -0.33980000
H       -0.89270000      -0.51540000      -0.33980000
5
Properties=species:S:1:pos:R:3 REF_energy="_JSON [[-194594.07961012863, -194594.07956414137, -194593.24882556053]]" pbc="F F F"
C        0.00000000       0.00000000       0.00000000
I        0.00000000      -1.60000000       2.77128000
H        0.00000000       1.03090000      -0.33980000
H        0.89270000      -0.51540000      -0.33980000
H       -0.89270000      -0.51540000      -0.33980000
5
Properties=species:S:1:pos:R:3 REF_energy="_JSON [[-194589.5430810507, -194589.23591375514, -194589.11622801117]]" pbc="F F F"
C        0.00000000       0.00000000       0.00000000
I        0.00000000       0.31257000       1.77265000
H        0.00000000       1.03090000      -0.33980000
H        0.89270000      -0.51540000      -0.33980000
H       -0.89270000      -0.51540000      -0.33980000
5
Properties=species:S:1:pos:R:3 REF_energy="_JSON [[-194589.1904557742, -194588.98640112788, -194588.69805132205]]" pbc="F F F"
C        0.00000000       0.00000000       0.00000000
I        0.00000000       0.61564000       1.69145000
H        0.00000000       1.03090000      -0.33980000
H        0.89270000      -0.51540000      -0.33980000
H       -0.89270000      -0.51540000      -0.33980000
5
Properties=species:S:1:pos:R:3 REF_energy="_JSON [[-194589.6478130496, -194589.2773618662, -194589.27733547115]]" pbc="F F F"
C        0.00000000       0.00000000       0.00000000
I        0.00000000       0.00000000       1.80000000
H        0.00000000       1.03090000      -0.33980000
H        0.89270000      -0.51540000      -0.33980000
H       -0.89270000      -0.51540000      -0.33980000
5
Properties=species:S:1:pos:R:3 REF_energy="_JSON [[-194588.28715612774, -194587.892566268, -194587.82818249598]]" pbc="F F F"
C        0.00000000       0.00000000       0.00000000
I        0.00000000      -1.15702000       1.37888000
H        0.00000000       1.03090000      -0.33980000
H        0.89270000      -0.51540000      -0.33980000
H       -0.89270000      -0.51540000      -0.33980000
5
Properties=species:S:1:pos:R:3 REF_energy="_JSON [[-194588.52096098237, -194588.427966887, -194587.96983653613]]" pbc="F F F"
C        0.00000000       0.00000000       0.00000000
I        0.00000000       0.90000000       1.55885000
H        0.00000000       1.03090000      -0.33980000
H        0.89270000      -0.51540000      -0.33980000
H       -0.89270000      -0.51540000      -0.33980000
5
Properties=species:S:1:pos:R:3 REF_energy="_JSON [[-194587.45026641307, -194587.41914801623, -194586.84971275617]]" pbc="F F F"
C        0.00000000       0.00000000       0.00000000
I        0.00000000       1.15702000       1.37888000
H        0.00000000       1.03090000      -0.33980000
H        0.89270000      -0.51540000      -0.33980000
H       -0.89270000      -0.51540000      -0.33980000
5
Properties=species:S:1:pos:R:3 REF_energy="_JSON [[-194589.55610305953, -194589.21681109, -194589.1526177977]]" pbc="F F F"
C        0.00000000       0.00000000       0.00000000
I        0.00000000      -0.31257000       1.77265000
H        0.00000000       1.03090000      -0.33980000
H        0.89270000      -0.51540000      -0.33980000
H       -0.89270000      -0.51540000      -0.33980000
5
Properties=species:S:1:pos:R:3 REF_energy="_JSON [[-194589.29524491698, -194588.95422420814, -194588.87757082217]]" pbc="F F F"
C        0.00000000       0.00000000       0.00000000
I        0.00000000      -0.61564000       1.69145000
H        0.00000000       1.03090000      -0.33980000
H        0.89270000      -0.51540000      -0.33980000
H       -0.89270000      -0.51540000      -0.33980000
5
Properties=species:S:1:pos:R:3 REF_energy="_JSON [[-194588.87333101613, -194588.49295039795, -194588.45686946064]]" pbc="F F F"
C        0.00000000       0.00000000       0.00000000
I        0.00000000      -0.90000000       1.55885000
H        0.00000000       1.03090000      -0.33980000
H        0.89270000      -0.51540000      -0.33980000
H       -0.89270000      -0.51540000      -0.33980000
5
Properties=species:S:1:pos:R:3 REF_energy="_JSON [[-194591.27350859923, -194590.92993138067, -194590.85148666918]]" pbc="F F F"
C        0.00000000       0.00000000       0.00000000
I        0.00000000       0.34730000       1.96962000
H        0.00000000       1.03090000      -0.33980000
H        0.89270000      -0.51540000      -0.33980000
H       -0.89270000      -0.51540000      -0.33980000
5
Properties=species:S:1:pos:R:3 REF_energy="_JSON [[-194591.06470420552, -194590.7825156017, -194590.58701267766]]" pbc="F F F"
C        0.00000000       0.00000000       0.00000000
I        0.00000000       0.68404000       1.87939000
H        0.00000000       1.03090000      -0.33980000
H        0.89270000      -0.51540000      -0.33980000
H       -0.89270000      -0.51540000      -0.33980000
5
Properties=species:S:1:pos:R:3 REF_energy="_JSON [[-194591.33492986768, -194590.9525960162, -194590.95257941727]]" pbc="F F F"
C        0.00000000       0.00000000       0.00000000
I        0.00000000       0.00000000       2.00000000
H        0.00000000       1.03090000      -0.33980000
H        0.89270000      -0.51540000      -0.33980000
H       -0.89270000      -0.51540000      -0.33980000
5
Properties=species:S:1:pos:R:3 REF_energy="_JSON [[-194590.56476410423, -194590.1526912011, -194590.1423405341]]" pbc="F F F"
C        0.00000000       0.00000000       0.00000000
I        0.00000000      -1.28558000       1.53209000
H        0.00000000       1.03090000      -0.33980000
H        0.89270000      -0.51540000      -0.33980000
H       -0.89270000      -0.51540000      -0.33980000
5
Properties=species:S:1:pos:R:3 REF_energy="_JSON [[-194590.65450562263, -194590.46016571327, -194590.11363252182]]" pbc="F F F"
C        0.00000000       0.00000000       0.00000000
I        0.00000000       1.00000000       1.73205000
H        0.00000000       1.03090000      -0.33980000
H        0.89270000      -0.51540000      -0.33980000
H       -0.89270000      -0.51540000      -0.33980000
5
Properties=species:S:1:pos:R:3 REF_energy="_JSON [[-194589.9623032013, -194589.85586532063, -194589.3619060099]]" pbc="F F F"
C        0.00000000       0.00000000       0.00000000
I        0.00000000       1.28558000       1.53209000
H        0.00000000       1.03090000      -0.33980000
H        0.89270000      -0.51540000      -0.33980000
H       -0.89270000      -0.51540000      -0.33980000
5
Properties=species:S:1:pos:R:3 REF_energy="_JSON [[-194591.28161051733, -194590.92011487318, -194590.87511785314]]" pbc="F F F"
C        0.00000000       0.00000000       0.00000000
I        0.00000000      -0.34730000       1.96962000
H        0.00000000       1.03090000      -0.33980000
H        0.89270000      -0.51540000      -0.33980000
H       -0.89270000      -0.51540000      -0.33980000
5
Properties=species:S:1:pos:R:3 REF_energy="_JSON [[-194591.131851838, -194590.77181254723, -194590.71189634057]]" pbc="F F F"
C        0.00000000       0.00000000       0.00000000
I        0.00000000      -0.68404000       1.87939000
H        0.00000000       1.03090000      -0.33980000
H        0.89270000      -0.51540000      -0.33980000
H       -0.89270000      -0.51540000      -0.33980000
5
Properties=species:S:1:pos:R:3 REF_energy="_JSON [[-194590.89402269147, -194590.514513654, -194590.47130659892]]" pbc="F F F"
C        0.00000000       0.00000000       0.00000000
I        0.00000000      -1.00000000       1.73205000
H        0.00000000       1.03090000      -0.33980000
H        0.89270000      -0.51540000      -0.33980000
H       -0.89270000      -0.51540000      -0.33980000
5
Properties=species:S:1:pos:R:3 REF_energy="_JSON [[-194593.9522706381, -194593.95216587427, -194593.29334910243]]" pbc="F F F"
C        0.00000000       0.00000000       0.00000000
I        0.00000000       0.52094000       2.95442000
H        0.00000000       1.03090000      -0.33980000
H        0.89270000      -0.51540000      -0.33980000
H       -0.89270000      -0.51540000      -0.33980000
5
Properties=species:S:1:pos:R:3 REF_energy="_JSON [[-194593.9441956593, -194593.94331183351, -194593.26492735397]]" pbc="F F F"
C        0.00000000       0.00000000       0.00000000
I        0.00000000       1.02606000       2.81908000
H        0.00000000       1.03090000      -0.33980000
H        0.89270000      -0.51540000      -0.33980000
H       -0.89270000      -0.51540000      -0.33980000
5
Properties=species:S:1:pos:R:3 REF_energy="_JSON [[-194593.9538959742, -194593.95389515787, -194593.3016270782]]" pbc="F F F"
C        0.00000000       0.00000000       0.00000000
I        0.00000000       0.00000000       3.00000000
H        0.00000000       1.03090000      -0.33980000
H        0.89270000      -0.51540000      -0.33980000
H       -0.89270000      -0.51540000      -0.33980000
5
Properties=species:S:1:pos:R:3 REF_energy="_JSON [[-194593.94831301415, -194593.94781695056, -194593.18782715703]]" pbc="F F F"
C        0.00000000       0.00000000       0.00000000
I        0.00000000      -1.92836000       2.29813000
H        0.00000000       1.03090000      -0.33980000
H        0.89270000      -0.51540000      -0.33980000
H       -0.89270000      -0.51540000      -0.33980000
5
Properties=species:S:1:pos:R:3 REF_energy="_JSON [[-194593.9238635838, -194593.92099822484, -194593.2096577636]]" pbc="F F F"
C        0.00000000       0.00000000       0.00000000
I        0.00000000       1.50000000       2.59808000
H        0.00000000       1.03090000      -0.33980000
H        0.89270000      -0.51540000      -0.33980000
H       -0.89270000      -0.51540000      -0.33980000
5
Properties=species:S:1:pos:R:3 REF_energy="_JSON [[-194593.88519674848, -194593.87811906697, -194593.11992223168]]" pbc="F F F"
C        0.00000000       0.00000000       0.00000000
I        0.00000000       1.92836000       2.29813000
H        0.00000000       1.03090000      -0.33980000
H        0.89270000      -0.51540000      -0.33980000
H       -0.89270000      -0.51540000      -0.33980000
5
Properties=species:S:1:pos:R:3 REF_energy="_JSON [[-194593.95352154554, -194593.953314739, -194593.29448490572]]" pbc="F F F"
C        0.00000000       0.00000000       0.00000000
I        0.00000000      -0.52094000       2.95442000
H        0.00000000       1.03090000      -0.33980000
H        0.89270000      -0.51540000      -0.33980000
H       -0.89270000      -0.51540000      -0.33980000
5
Properties=species:S:1:pos:R:3 REF_energy="_JSON [[-194593.9532989564, -194593.9527920083, -194593.27388479802]]" pbc="F F F"
C        0.00000000       0.00000000       0.00000000
I        0.00000000      -1.02606000       2.81908000
H        0.00000000       1.03090000      -0.33980000
H        0.89270000      -0.51540000      -0.33980000
H       -0.89270000      -0.51540000      -0.33980000
5
Properties=species:S:1:pos:R:3 REF_energy="_JSON [[-194593.9525114589, -194593.95182273872, -194593.23913613017]]" pbc="F F F"
C        0.00000000       0.00000000       0.00000000
I        0.00000000      -1.50000000       2.59808000
H        0.00000000       1.03090000      -0.33980000
H        0.89270000      -0.51540000      -0.33980000
H       -0.89270000      -0.51540000      -0.33980000
5
Properties=species:S:1:pos:R:3 REF_energy="_JSON [[-194593.35776253487, -194593.3543507713, -194593.1003153396]]" pbc="F F F"
C        0.00000000       0.00000000       0.00000000
I        0.00000000       0.45149000       2.56050000
H        0.00000000       1.03090000      -0.33980000
H        0.89270000      -0.51540000      -0.33980000
H       -0.89270000      -0.51540000      -0.33980000
5
Properties=species:S:1:pos:R:3 REF_energy="_JSON [[-194593.3289152003, -194593.32070334823, -194593.03973952893]]" pbc="F F F"
C        0.00000000       0.00000000       0.00000000
I        0.00000000       0.88925000       2.44320000
H        0.00000000       1.03090000      -0.33980000
H        0.89270000      -0.51540000      -0.33980000
H       -0.89270000      -0.51540000      -0.33980000
5
Properties=species:S:1:pos:R:3 REF_energy="_JSON [[-194593.36442524273, -194593.3644241543, -194593.11761470613]]" pbc="F F F"
C        0.00000000       0.00000000       0.00000000
I        0.00000000       0.00000000       2.60000000
H        0.00000000       1.03090000      -0.33980000
H        0.89270000      -0.51540000      -0.33980000
H       -0.89270000      -0.51540000      -0.33980000
5
Properties=species:S:1:pos:R:3 REF_energy="_JSON [[-194593.29045136194, -194593.28736286963, -194592.8710256702]]" pbc="F F F"
C        0.00000000       0.00000000       0.00000000
I        0.00000000      -1.67125000       1.99172000
H        0.00000000       1.03090000      -0.33980000
H        0.89270000      -0.51540000      -0.33980000
H       -0.89270000      -0.51540000      -0.33980000
5
Properties=species:S:1:pos:R:3 REF_energy="_JSON [[-194593.2678261829, -194593.25053579613, -194592.91758353537]]" pbc="F F F"
C        0.00000000       0.00000000       0.00000000
I        0.00000000       1.30000000       2.25167000
H        0.00000000       1.03090000      -0.33980000
H        0.89270000      -0.51540000      -0.33980000
H       -0.89270000      -0.51540000      -0.33980000
5
Properties=species:S:1:pos:R:3 REF_energy="_JSON [[-194593.1561335115, -194593.11907650178, -194592.70884009512]]" pbc="F F F"
C        0.00000000       0.00000000       0.00000000
I        0.00000000       1.67125000       1.99172000
H        0.00000000       1.03090000      -0.33980000
H        0.89270000      -0.51540000      -0.33980000
H       -0.89270000      -0.51540000      -0.33980000
5
Properties=species:S:1:pos:R:3 REF_energy="_JSON [[-194593.35995658895, -194593.35720034764, -194593.1027613711]]" pbc="F F F"
C        0.00000000       0.00000000       0.00000000
I        0.00000000      -0.45149000       2.56050000
H        0.00000000       1.03090000      -0.33980000
H        0.89270000      -0.51540000      -0.33980000
H       -0.89270000      -0.51540000      -0.33980000
5
Properties=species:S:1:pos:R:3 REF_energy="_JSON [[-194593.3465623284, -194593.34217694143, -194593.05945200118]]" pbc="F F F"
C        0.00000000       0.00000000       0.00000000
I        0.00000000      -0.88925000       2.44320000
H        0.00000000       1.03090000      -0.33980000
H        0.89270000      -0.51540000      -0.33980000
H       -0.89270000      -0.51540000      -0.33980000
5
Properties=species:S:1:pos:R:3 REF_energy="_JSON [[-194593.32457063044, -194593.32116104377, -194592.9846854527]]" pbc="F F F"
C        0.00000000       0.00000000       0.00000000
I        0.00000000      -1.30000000       2.25167000
H        0.00000000       1.03090000      -0.33980000
H        0.89270000      -0.51540000      -0.33980000
H       -0.89270000      -0.51540000      -0.33980000
5
Properties=species:S:1:pos:R:3 REF_energy="_JSON [[-194594.15300794438, -194594.15289610557, -194593.19544906626]]" pbc="F F F"
C        0.00000000       0.00000000       0.00000000
I        0.00000000       0.62513000       3.54531000
H        0.00000000       1.03090000      -0.33980000
H        0.89270000      -0.51540000      -0.33980000
H       -0.89270000      -0.51540000      -0.33980000
5
Properties=species:S:1:pos:R:3 REF_energy="_JSON [[-194594.15226942734, -194594.15197554437, -194593.1867667293]]" pbc="F F F"
C        0.00000000       0.00000000       0.00000000
I        0.00000000       1.23127000       3.38289000
H        0.00000000       1.03090000      -0.33980000
H        0.89270000      -0.51540000      -0.33980000
H       -0.89270000      -0.51540000      -0.33980000
5
Properties=species:S:1:pos:R:3 REF_energy="_JSON [[-194594.1528103897, -194594.15281011758, -194593.19801455576]]" pbc="F F F"
C        0.00000000       0.00000000       0.00000000
I        0.00000000       0.00000000       3.60000000
H        0.00000000       1.03090000      -0.33980000
H        0.89270000      -0.51540000      -0.33980000
H       -0.89270000      -0.51540000      -0.33980000
5
Properties=species:S:1:pos:R:3 REF_energy="_JSON [[-194594.16644683157, -194594.16523293167, -194593.1707008549]]" pbc="F F F"
C        0.00000000       0.00000000       0.00000000
I        0.00000000      -2.31404000       2.75776000
H        0.00000000       1.03090000      -0.33980000
H        0.89270000      -0.51540000      -0.33980000
H       -0.89270000      -0.51540000      -0.33980000
5
Properties=species:S:1:pos:R:3 REF_energy="_JSON [[-194594.14810499683, -194594.1474271612, -194593.17035635875]]" pbc="F F F"
C        0.00000000       0.00000000       0.00000000
I        0.00000000       1.80000000       3.11769000
H        0.00000000       1.03090000      -0.33980000
H        0.89270000      -0.51540000      -0.33980000
H       -0.89270000      -0.51540000      -0.33980000
5
Properties=species:S:1:pos:R:3 REF_energy="_JSON [[-194594.13718044167, -194594.13584245785, -194593.14467261994]]" pbc="F F F"
C        0.00000000       0.00000000       0.00000000
I        0.00000000       2.31404000       2.75776000
H        0.00000000       1.03090000      -0.33980000
H        0.89270000      -0.51540000      -0.33980000
H       -0.89270000      -0.51540000      -0.33980000
5
Properties=species:S:1:pos:R:3 REF_energy="_JSON [[-194594.15354890673, -194594.15335652223, -194593.19593206837]]" pbc="F F F"
C        0.00000000       0.00000000       0.00000000
I        0.00000000      -0.62513000       3.54531000
H        0.00000000       1.03090000      -0.33980000
H        0.89270000      -0.51540000      -0.33980000
H       -0.89270000      -0.51540000      -0.33980000
5
Properties=species:S:1:pos:R:3 REF_energy="_JSON [[-194594.1562463714, -194594.15574214444, -194593.19043509627]]" pbc="F F F"
C        0.00000000       0.00000000       0.00000000
I        0.00000000      -1.23127000       3.38289000
H        0.00000000       1.03090000      -0.33980000
H        0.89270000      -0.51540000      -0.33980000
H       -0.89270000      -0.51540000      -0.33980000
5
Properties=species:S:1:pos:R:3 REF_energy="_JSON [[-194594.16103013308, -194594.16013025254, -194593.18218460403]]" pbc="F F F"
C        0.00000000       0.00000000       0.00000000
I        0.00000000      -1.80000000       3.11769000
H        0.00000000       1.03090000      -0.33980000
H        0.89270000      -0.51540000      -0.33980000
H       -0.89270000      -0.51540000      -0.33980000
5
Properties=species:S:1:pos:R:3 REF_energy="_JSON [[-194592.81232472404, -194592.79338559936, -194592.79081956568]]" pbc="F F F"
C        0.00000000       0.00000000       0.00000000
I        0.00000000       0.41676000       2.36354000
H        0.00000000       1.03090000      -0.33980000
H        0.89270000      -0.51540000      -0.33980000
H       -0.89270000      -0.51540000      -0.33980000
5
Properties=species:S:1:pos:R:3 REF_energy="_JSON [[-194592.76544222707, -194592.71843401348, -194592.70094797685]]" pbc="F F F"
C        0.00000000       0.00000000       0.00000000
I        0.00000000       0.82085000       2.25526000
H        0.00000000       1.03090000      -0.33980000
H        0.89270000      -0.51540000      -0.33980000
H       -0.89270000      -0.51540000      -0.33980000
5
Properties=species:S:1:pos:R:3 REF_energy="_JSON [[-194592.82605422888, -194592.81476558538, -194592.81476531326]]" pbc="F F F"
C        0.00000000       0.00000000       0.00000000
I        0.00000000       0.00000000       2.40000000
H        0.00000000       1.03090000      -0.33980000
H        0.89270000      -0.51540000      -0.33980000
H       -0.89270000      -0.51540000      -0.33980000
5
Properties=species:S:1:pos:R:3 REF_energy="_JSON [[-194592.64475347142, -194592.61464107956, -194592.45321823962]]" pbc="F F F"
C        0.00000000       0.00000000       0.00000000
I        0.00000000      -1.54269000       1.83851000
H        0.00000000       1.03090000      -0.33980000
H        0.89270000      -0.51540000      -0.33980000
H       -0.89270000      -0.51540000      -0.33980000
5
Properties=species:S:1:pos:R:3 REF_energy="_JSON [[-194592.6613660226, -194592.57398917363, -194592.51317471912]]" pbc="F F F"
C        0.00000000       0.00000000       0.00000000
I        0.00000000       1.20000000       2.07846000
H        0.00000000       1.03090000      -0.33980000
H        0.89270000      -0.51540000      -0.33980000
H       -0.89270000      -0.51540000      -0.33980000
5
Properties=species:S:1:pos:R:3 REF_energy="_JSON [[-194592.4576009054, -194592.31682851422, -194592.1925054059]]" pbc="F F F"
C        0.00000000       0.00000000       0.00000000
I        0.00000000       1.54269000       1.83851000
H        0.00000000       1.03090000      -0.33980000
H        0.89270000      -0.51540000      -0.33980000
H       -0.89270000      -0.51540000      -0.33980000
5
Properties=species:S:1:pos:R:3 REF_energy="_JSON [[-194592.80930507655, -194592.80567045172, -194592.792961646]]" pbc="F F F"
C        0.00000000       0.00000000       0.00000000
I        0.00000000      -0.41676000       2.36354000
H        0.00000000       1.03090000      -0.33980000
H        0.89270000      -0.51540000      -0.33980000
H       -0.89270000      -0.51540000      -0.33980000
5
Properties=species:S:1:pos:R:3 REF_energy="_JSON [[-194592.77134709785, -194592.7702610914, -194592.73322367392]]" pbc="F F F"
C        0.00000000       0.00000000       0.00000000
I        0.00000000      -0.82085000       2.25526000
H        0.00000000       1.03090000      -0.33980000
H        0.89270000      -0.51540000      -0.33980000
H       -0.89270000      -0.51540000      -0.33980000
5
Properties=species:S:1:pos:R:3 REF_energy="_JSON [[-194592.71752025513, -194592.7109816312, -194592.62365267426]]" pbc="F F F"
C        0.00000000       0.00000000       0.00000000
I        0.00000000      -1.20000000       2.07846000
H        0.00000000       1.03090000      -0.33980000
H        0.89270000      -0.51540000      -0.33980000
H       -0.89270000      -0.51540000      -0.33980000
5
Properties=species:S:1:pos:R:3 REF_energy="_JSON [[-194592.24734886596, -194592.0234190233, -194591.98631085615]]" pbc="F F F"
C        0.00000000       0.00000000       0.00000000
I        0.00000000       0.38203000       2.16658000
H        0.00000000       1.03090000      -0.33980000
H        0.89270000      -0.51540000      -0.33980000
H       -0.89270000      -0.51540000      -0.33980000
5
Properties=species:S:1:pos:R:3 REF_energy="_JSON [[-194592.12590635492, -194591.93042220673, -194591.84232860987]]" pbc="F F F"
C        0.00000000       0.00000000       0.00000000
I        0.00000000       0.75244000       2.06732000
H        0.00000000       1.03090000      -0.33980000
H        0.89270000      -0.51540000      -0.33980000
H       -0.89270000      -0.51540000      -0.33980000
5
Properties=species:S:1:pos:R:3 REF_energy="_JSON [[-194592.28251441222, -194592.03809902183, -194592.03809249107]]" pbc="F F F"
C        0.00000000       0.00000000       0.00000000
I        0.00000000       0.00000000       2.20000000
H        0.00000000       1.03090000      -0.33980000
H        0.89270000      -0.51540000      -0.33980000
H       -0.89270000      -0.51540000      -0.33980000
5
Properties=species:S:1:pos:R:3 REF_energy="_JSON [[-194591.83278639312, -194591.61534047953, -194591.58198693942]]" pbc="F F F"
C        0.00000000       0.00000000       0.00000000
I        0.00000000      -1.41413000       1.68530000
H        0.00000000       1.03090000      -0.33980000
H        0.89270000      -0.51540000      -0.33980000
H       -0.89270000      -0.51540000      -0.33980000
5
Properties=species:S:1:pos:R:3 REF_energy="_JSON [[-194591.88741515536, -194591.71295289136, -194591.5672873487]]" pbc="F F F"
C        0.00000000       0.00000000       0.00000000
I        0.00000000       1.10000000       1.90526000
H        0.00000000       1.03090000      -0.33980000
H        0.89270000      -0.51540000      -0.33980000
H       -0.89270000      -0.51540000      -0.33980000
5
Properties=species:S:1:pos:R:3 REF_energy="_JSON [[-194591.47563749578, -194591.29713515728, -194591.10228449016]]" pbc="F F F"
C        0.00000000       0.00000000       0.00000000
I        0.00000000       1.41413000       1.68530000
H        0.00000000       1.03090000      -0.33980000
H        0.89270000      -0.51540000      -0.33980000
H       -0.89270000      -0.51540000      -0.33980000
5
Properties=species:S:1:pos:R:3 REF_energy="_JSON [[-194592.25261318067, -194592.02240186167, -194591.99882809373]]" pbc="F F F"
C        0.00000000       0.00000000       0.00000000
I        0.00000000      -0.38203000       2.16658000
H        0.00000000       1.03090000      -0.33980000
H        0.89270000      -0.51540000      -0.33980000
H       -0.89270000      -0.51540000      -0.33980000
5
Properties=species:S:1:pos:R:3 REF_energy="_JSON [[-194592.16749977478, -194591.95039101026, -194591.91539444673]]" pbc="F F F"
C        0.00000000       0.00000000       0.00000000
I        0.00000000      -0.75244000       2.06732000
H        0.00000000       1.03090000      -0.33980000
H        0.89270000      -0.51540000      -0.33980000
H       -0.89270000      -0.51540000      -0.33980000
5
Properties=species:S:1:pos:R:3 REF_energy="_JSON [[-194592.0279861823, -194591.8196533619, -194591.78360317345]]" pbc="F F F"
C        0.00000000       0.00000000       0.00000000
I        0.00000000      -1.10000000       1.90526000
H        0.00000000       1.03090000      -0.33980000
H        0.89270000      -0.51540000      -0.33980000
H       -0.89270000      -0.51540000      -0.33980000
5
Properties=species:S:1:pos:R:3 REF_energy="_JSON [[-194585.76956712827, -194585.5686423356, -194585.42810886036]]" pbc="F F F"
C        0.00000000       0.00000000       0.00000000
I        0.00000000       0.27784000       1.57569000
H        0.00000000       1.03090000      -0.33980000
H        0.89270000      -0.51540000      -0.33980000
H       -0.89270000      -0.51540000      -0.33980000
5
Properties=species:S:1:pos:R:3 REF_energy="_JSON [[-194585.25819198624, -194585.16693397728, -194584.87768075345]]" pbc="F F F"
C        0.00000000       0.00000000       0.00000000
I        0.00000000       0.54723000       1.50351000
H        0.00000000       1.03090000      -0.33980000
H        0.89270000      -0.51540000      -0.33980000
H       -0.89270000      -0.51540000      -0.33980000
5
Properties=species:S:1:pos:R:3 REF_energy="_JSON [[-194585.92014541454, -194585.63632684873, -194585.63629582775]]" pbc="F F F"
C        0.00000000       0.00000000       0.00000000
I        0.00000000       0.00000000       1.60000000
H        0.00000000       1.03090000      -0.33980000
H        0.89270000      -0.51540000      -0.33980000
H       -0.89270000      -0.51540000      -0.33980000
5