5
Properties=species:S:1:pos:R:3 REF_energy="_JSON [[-194594.07605577738, -194594.07585278043, -194593.28550814156]]" REF_scalar="_JSON [[-0.3114227736796782]]" REF_socs="_JSON [[0.2192866131226714, 0.7510434131021944, -0.1701818650773168], [0.9389957297010709, -0.2543757364253354, -0.6234636740447921], [0.3413204539755419, -0.7983599612464551, -0.31548562113536316], [-0.7384565897087805, -0.9052835489228226, 0.15238898211186824], [-0.2385737279486646, 0.9095046827487834, 0.6604476825558228], [-0.08088287618166135, -0.8245072090465211, -0.40571626787598825], [0.06470879596835921, -0.30677919304660684, 0.6472959787830992], [-0.9927142595941276, 0.3710812036693907, -0.8950834126653235]]" REF_dipoles="_JSON [[-0.9128667416340515, 0.29663696933948547, -0.20645419584150448], [-0.6624927718086706, 0.5783160222354284, -0.9735761965759921], [-0.7898425395968727, -0.6756880313432925, 0.8371594059350427], [0.9241205019022372, 0.6007459203001899, 0.708635067240212], [0.0076500790148577025, 0.13039742414527655, 0.5097204849901567], [-0.7322993504842181, -0.30988178866685057, -0.7509204671770067], [-0.1376629666470861, 0.4164965801007692, -0.7378823109972246], [-0.14965887479024165, -0.8329777504875335, 0.9133522254904543], [-0.7321476592824034, 0.9140097583172777, 0.819199559086649], [-0.2727098805671633, -0.3823545150165617, -0.19658496379628532], [-0.5801848231987665, -0.43445546872027574, -0.9680261940545705]]" REF_nacs="_JSON [[0.006510270405740259, -0.3782275284305854, 0.41557038443392846], [-0.7400128937648986, 0.1824879177762191, -0.35610128461312374], [-0.41471235614262225, -0.954839152722704, 0.9381069230658443], [0.495652147157722, 0.16704431169308243, -0.8218597829532], [0.41373519769718525, -0.08325086934007175, 0.8059828695348938], [-0.420234198261755, 0.38579967883581645, -0.12670404017307235]]" REF_oscillator="0.8324441361793289 -0.9400577257204181 0.9582051372514269 0.3635355222353389" pbc="F F F"
C        0.00000000       0.00000000       0.00000000
I        0.00000000       0.55567000       3.15138000
H        0.00000000       1.03090000      -0.33980000
H        0.89270000      -0.51540000      -0.33980000
H       -0.89270000      -0.51540000      -0.33980000
5
Properties=species:S:1:pos:R:3 REF_energy="_JSON [[-194594.07171801032, -194594.07078030598, -194593.26585607856]]" REF_scalar="_JSON [[0.2701819414604141]]" REF_socs="_JSON [[0.3781374521356098, 0.493549755433464, -0.8063521911188976], [-0.5781752586717499, 0.16963839046253937, -0.5474722097062343], [-0.7332568005019338, 0.9320343879524633, 0.6180651817834186], [0.15313257115595236, -0.625619841777133, 0.9380215286133122], [0.7964689863676535, -0.0218452611321025, -0.3617667374200739], [0.858114003616385, 0.6238044474880982, -0.31653851672343225], [0.8294167660829734, 0.8324998838729034, 0.7732502362901268], [-0.009102118787933655, 0.7885703028641098, -0.24607817956565659]]" REF_dipoles="_JSON [[0.0389214435391827, -0.31083056482700755, -0.34930098550974775], [-0.016931167462745922, 0.14261426913293374, 0.7331924095300664], [-0.8075889534207306, 0.8778550117878792, -0.7264655785223939], [-0.019391729343978037, -0.19173715619896847, 0.3348684001598474], [-0.8554090983990734, -0.38613763071258567, -0.7249901077481071], [0.15576859737494742, -0.19022074211709294, 0.14944876727539969], [0.47056047234767484, -0.5517246800995701, 0.8349771742416154], [-0.00018392024482527525, -0.706858295400276, -0.06917905515760903], [-0.4300593531836754, 0.8491889249358935, 0.781448334984826], [-0.6625732797303674, 0.9538758915828205, 0.013801605953287943], [0.29140723925477574, -0.29688586747311585, -0.8086464414281513]]" REF_nacs="_JSON [[0.45362791649401046, 0.44292234597129587, -0.10642974563272989], [-0.9934760220422045, -0.7159359257417091, 0.09195657463155849], [-0.7242668009840285, -0.06451135532479135, -0.07651352591377014], [0.928388310259658, -0.10245342167063387, 0.07996401684305998], [0.7146098462369448, -0.5970315252829925, -0.28063576848172], [0.44627773351540867, -0.5784471219367111, -0.18417037601906916]]" REF_oscillator="0.6032568003614833 0.4149692105590401 -0.5679487675450214 -0.685594349448291" pbc="F F F"
C        0.00000000       0.00000000       0.00000000
I        0.00000000       1.09446000       3.00702000
H        0.00000000       1.03090000      -0.33980000
H        0.89270000      -0.51540000      -0.33980000
H       -0.89270000      -0.51540000      -0.33980000
5
Properties=species:S:1:pos:R:3 REF_energy="_JSON [[-194594.07666640088, -194594.07665823743, -194593.29127232946]]" REF_scalar="_JSON [[-0.07338204903365031]]" REF_socs="_JSON [[-0.767912450580734, 0.6794263529926281, 0.21106026440524084], [-0.21108624009084775, -0.8387624031988723, 0.13868669541350997], [0.171175518648085, -0.5536456449625975, 0.44787211957560236], [-0.13249562205223353, 0.9250726208628108, -0.9544748739014002], [-0.4812566802499314, -0.5299879870664783, 0.7087802403025985], [-0.05149881298847614, -0.4948526184030557, -0.8182239321962641], [0.4522811045684454, 0.12782291831372583, -0.8864128224499452], [-0.27559233327916655, 0.4012568449501006, -0.6320498049887]]" REF_dipoles="_JSON [[0.4336545709241135, -0.5371999833618659, -0.2900555403467977], [0.5882023255774369, 0.7496763548720942, 0.4781736373206118], [0.17016633336177067, 0.015215237240841839, 0.1608847107079494], [-0.2565651902597863, -0.61616821145867, 0.9964060309231462], [-0.1703230181340727, 0.8704506516667554, 0.8408140716464234], [0.9446663812721643, -0.9177520225548879, -0.1645841996323445], [-0.3043151024455053, -0.7811468319803241, -0.03200543003480183], [0.12313721003637146, 0.9591940425409644, -0.5004996399227228], [-0.11105538236901191, -0.83401077175704, -0.5739096841420082], [-0.14211241502758365, 0.4379106213490458, -0.8754273678516664], [-0.4870186153460707, 0.7385834480392093, 0.7336988425996438]]" REF_nacs="_JSON [[0.14227910960558665, -0.22929154826661713, 0.04211595505465504], [-0.00755464312089682, 0.20713408464185412, -0.8363992573384189], [0.1766626299136249, -0.09189418094911916, -0.7247754492303142], [-0.9977563408394179, 0.12511704456693962, 0.053591768120228256], [0.6608179387583495, -0.4459065195905427, 0.32545443962194387], [-0.5251175535557251, -0.41664720636687536, 0.6256457976963552]]" REF_oscillator="0.9119600465953519 -0.8752256963645173 0.30863775993848774 0.08924816725764817" pbc="F F F"
C        0.00000000       0.00000000       0.00000000
I        0.00000000       0.00000000       3.20000000
H        0.00000000       1.03090000      -0.33980000
H        0.89270000      -0.51540000      -0.33980000
H       -0.89270000      -0.51540000      -0.33980000
5
Properties=species:S:1:pos:R:3 REF_energy="_JSON [[-194594.0793899885, -194594.07935406946, -194593.21447227412]]" REF_scalar="_JSON [[0.7566778652453685]]" REF_socs="_JSON [[0.6847567678960567, -0.750759489462064, -0.06951883536734815], [0.3660190722512944, 0.5557426905342002, 0.21971811915259054], [-0.43083792845733093, 0.8755255026448767, 0.051001088141045425], [-0.9215915578453193, 0.4284045642066281, 0.1638177556786311], [-0.8710590215632736, 0.7130782423293138, 0.006637980247200748], [-0.32507376092410056, 0.832147775069517, 0.3606825559237663], [-0.546733249934741, -0.7153564544913036, 0.7203740022229683], [-0.24630873652852725, -0.741525207659439, -0.0660734643827634]]" REF_dipoles="_JSON [[-0.15144091837357787, 0.4665716456040865, 0.23678497713630886], [0.4944992968057975, -0.416032637194935, -0.4551621834590627], [-0.9483990346870901, 0.25074735687771077, -0.4064732159423561], [-0.16413733454236712, 0.563117378380215, -0.47477262748778704], [-0.237715507319894, 0.28961576264247313, -0.0005441368089256216], [0.2730895619451237, -0.39207050527328247, 0.539003963445783], [-0.36586945454897957, -0.113898633798166, 0.20016554870321812], [-0.9636868307059578, 0.5926157276131692, -0.45650471738315734], [-0.7653073890834867, 0.7673218666886208, 0.08115007291950094], [-0.06372394543627213, 0.4386524683306947, 0.6906680540311656], [-0.09473425416939008, 0.9959321474041443, -0.060021973916911]]" REF_nacs="_JSON [[-0.17583313928323951, -0.2102633856155911, -0.5931494806986022], [-0.8036527188187259, 0.1620562772792724, 0.4614310128413408], [-0.7054756684083578, -0.9061912927299445, 0.8025552571465748], [0.16387715290386895, -0.3111520884715473, -0.3196594506305872], [-0.04643210879429338, -0.04751244757872408, -0.58115938481955], [0.535118530361163, -0.7325627218426349, 0.34354104492647375]]" REF_oscillator="0.2806646574230396 0.5957893899724622 0.42529083711989624 -0.025310884205298256" pbc="F F F"
C        0.00000000       0.00000000       0.00000000
I        0.00000000      -2.05692000       2.45134000
H        0.00000000       1.03090000      -0.33980000
H        0.89270000      -0.51540000      -0.33980000
H       -0.89270000      -0.51540000      -0.33980000
5
Properties=species:S:1:pos:R:3 REF_energy="_JSON [[-194594.05909628104, -194594.05636806745, -194593.22800558485]]" REF_scalar="_JSON [[0.5836408328235536]]" REF_socs="_JSON [[0.12425195025825175, -0.6333837805016187, -0.8866225067563032], [-0.7615717304397107, -0.38290664674048136, -0.7749536138235238], [0.958492700219479, 0.3903485300462226, -0.7298092890699783], [0.8134297698665824, 0.11702161154812929, -0.31439669032788453], [0.051075938912674035, -0.8406027341347659, -0.7898712644646455], [0.4607677432189283, 0.2546919497492959, -0.5732650069605421], [-0.7354878070493083, -0.4309965580920452, 0.9956102137984959], [-0.09434067439405136, -0.5939047269673083, 0.8906584102855084]]" REF_dipoles="_JSON [[0.12007530872531391, 0.33321829412244375, -0.06176962731101798], [0.22306082321461873, 0.8191286251639542, 0.7037723135020797], [0.3420580184849904, 0.5364942735582228, -0.8484522588516263], [0.04160788417455863, -0.006926223090819805, -0.06253261856082903], [-0.28916519535002694, -0.5635609861970807, -0.7159388163724982], [-0.5317221275913457, 0.003922560533528241, -0.6769449995241248], [-0.8038582592217445, -0.5331245091614631, -0.05586821448398527], [-0.7813890538803037, 0.08027475193953837, 0.3503927723397111], [0.23047560642919618, 0.5723874615275333, -0.18260092157707586], [0.20373614291571962, 0.4803363781199599, -0.2639018504558037], [0.739274082339223, -0.6377959306269141, 0.5183095928605921]]" REF_nacs="_JSON [[0.06811694271241442, 0.17716152840614363, 0.410033756202661], [0.11433380140424254, 0.9212471931108517, -0.07432614010745797], [-0.4955867922210888, 0.4818376451638713, 0.742291793789142], [0.09101807259349681, -0.11561644814228611, -0.6729454744472176], [0.5062186311026367, -0.7455579223630457, 0.1214085064342012], [-0.05650028471446089, 0.7484073858107583, 0.3933287148703084]]" REF_oscillator="0.5401624373308298 0.11364692720731506 0.6467292783264935 0.6415070686556923" pbc="F F F"
C        0.00000000       0.00000000       0.00000000
I        0.00000000       1.60000000       2.77128000
H        0.00000000       1.03090000      -0.33980000
H        0.89270000      -0.51540000      -0.33980000
H       -0.89270000      -0.51540000      -0.33980000
5
Properties=species:S:1:pos:R:3 REF_energy="_JSON [[-194594.03328111122, -194594.02683282905, -194593.16729779897]]" REF_scalar="_JSON [[0.782099088881782]]" REF_socs="_JSON [[0.5375633361891428, 0.6262026601020798, 0.39765878459732007], [0.021561391721940604, -0.32424488269967644, -0.6902105471851423], [-0.720391278427829, -0.6656933463751862, -0.16049825031855147], [-0.13191711485361246, -0.15034165288631507, -0.05636055634286241], [0.8978369774589248, -0.20535812329056213, 0.7515809914554732], [0.9872262673174732, -0.540900323902076, -0.850719253785194], [-0.46921214893034024, 0.33855053050156814, 0.155192450003675], [0.8938545978610137, -0.867591166085679, 0.4035899020825493]]" REF_dipoles="_JSON [[-0.6969039541055801, 0.7651252350015121, 0.5932231534189991], [-0.88716601812234, -0.5326797528998173, -0.7842348327383115], [0.9715177935037129, 0.773642535823573, 0.2671399044780949], [0.3633238967727541, 0.7656125362970383, -0.9120609954890273], [-0.5686124495414222, 0.46699276356904496, 0.17227551103190852], [0.9167244130871526, -0.6637047009468855, -0.858103027166752], [-0.6046214440807367, 0.21606973647889482, 0.6878731346605604], [-0.9211928035440342, 0.40825434080196277, -0.1756776858842799], [0.4848840128646825, -0.856377173052078, -0.46440066548466197], [-0.7350211330131435, 0.4187770129336861, -0.7853913043159182], [0.963949361340491, 0.33720343521899676, -0.6142919647650193]]" REF_nacs="_JSON [[-0.21907614226956174, -0.35930007004560705, -0.7021140469955911], [-0.15450244164209503, -0.8532587534544271, -0.11261535482533147], [-0.412989133760602, 0.9615990071134968, 0.5385911738777787], [0.8637905172076377, -0.43133292657563693, 0.6210870381405897], [-0.648132241067479, -0.5928481479315466, -0.6736817931628731], [-0.3709780281274404, -0.9075266926344816, -0.7857788364103335]]" REF_oscillator="-0.8841973064741284 -0.3208043529315652 0.908227977079284 -0.21894132032475455" pbc="F F F"
C        0.00000000       0.00000000       0.00000000
I        0.00000000       2.05692000       2.45134000
H        0.00000000       1.03090000      -0.33980000
H        0.89270000      -0.51540000      -0.33980000
H       -0.89270000      -0.51540000      -0.33980000
5
Properties=species:S:1:pos:R:3 REF_energy="_JSON [[-194594.07679892035, -194594.07679592707, -194593.28630597942]]" REF_scalar="_JSON [[0.7710594816696665]]" REF_socs="_JSON [[0.9394150599664197, 0.7858929869839133, -0.589206977352267], [0.7493417826766906, 0.05078082345384316, -0.8944995129189497], [-0.7527778254355919, -0.7863922619116546, 0.5962106423169626], [0.7076055702805413, 0.6738224129898218, 0.11052034655619813], [0.038174541397776984, 0.5318778979968393, -0.6176524270084023], [0.6233243011304053, 0.20397687357751715, -0.23612175974926597], [0.41127588788988123, 0.11340355466970409, -0.28824096527411913], [0.07302781957093907, 0.47504929870130397, 0.4911655961677701]]" REF_dipoles="_JSON [[-0.21700424816749408, -0.8963002374591773, 0.3178440639776541], [-0.7900484368167315, 0.4983898417330064, -0.508611965344181], [-0.2499359081328003, -0.5755147708884256, 0.1171249673564072], [-0.7612283663973947, -0.16797196549463056, 0.7872007986763834], [0.37294347182893084, 0.4221632940740463, -0.5046977219623476], [0.3231178652720488, 0.9390737428305473, -0.03200519600579965], [-0.40067117506842265, -0.32982191755336476, -0.03353544596675473], [-0.9533656686216352, 0.15262680060774003, 0.11597583540583578], [0.20956495677931142, -0.08600920424122127, 0.7824538475918323], [0.978740941826125, -0.7449039295249866, -0.5920744457331297], [-0.16083906452139285, 0.5291083143505617, -0.5215557275027043]]" REF_nacs="_JSON [[0.6013260137610013, -0.4302016636652186, 0.14880842838581487], [0.41999833918250684, -0.5502636079535304, -0.49692152589103467], [0.7208494266774967, 0.6598447635518165, -0.7705303712483491], [0.7552432594136991, 0.20436334407088608, 0.12139418962327797], [-0.6682208838274222, 0.2896963767407881, -0.29109292192639313], [-0.48825330222395324, 0.7839922442568157, -0.8209993807142542]]" REF_oscillator="-0.9847694199340216 0.2661801753324857 0.980365228581684 0.8189621387055157" pbc="F F F"
C        0.00000000       0.00000000       0.00000000
I        0.00000000      -0.55567000       3.15138000
H        0.00000000       1.03090000      -0.33980000
H        0.89270000      -0.51540000      -0.33980000
H       -0.89270000      -0.51540000      -0.33980000
5
Properties=species:S:1:pos:R:3 REF_energy="_JSON [[-194594.0779706426, -194594.07793445146, -194593.2722140189]]" REF_scalar="_JSON [[-0.6715625558346165]]" REF_socs="_JSON [[0.4169391899063972, 0.7624912496275258, 0.39215626042449725], [-0.8029200146815139, -0.7477401458396022, 0.8933206576945891], [-0.8202171102778564, 0.9374857497698781, -0.6783913150110763], [0.9646242546441695, -0.8202638674845286, -0.32486292356840796], [0.6455083571507854, -0.20423730016754926, -0.3671436087526694], [-0.5113975978295306, -0.6991792682166942, -0.9409307419178721], [0.021275765302352312, 0.42873820938766793, -0.490520371680762], [-0.8099550881923012, -0.5039728769414338, -0.8330024131543288]]" REF_dipoles="_JSON [[0.4738095231375874, 0.4994902248836788, -0.5050676958682556], [0.15199476321420669, 0.76357389509382, -0.9478469660166322], [-0.800804488612777, -0.4086380348806793, 0.04400999261989025], [0.46745344989215054, 0.51780840058119, 0.5533022685911855], [-0.8828511833887263, -0.15975382078068656, 0.432496090390023], [0.5988056855004187, 0.8122506888062808, 0.9138016370627726], [-0.9347577868885781, 0.14770848862206254, -0.7113426461846486], [-0.8328745876293986, 0.6171142178597306, -0.1776659683768631], [-0.043449996077067565, 0.12594548031657493, 0.4548160376002317], [-0.09385266732062036, 0.8752300902062102, 0.16477400633873085], [-0.6843188471719788, -0.4826772854778272, -0.5790382651481101]]" REF_nacs="_JSON [[-0.0801051805180637, -0.3925017090074263, -0.8260415402132819], [-0.8382066051835062, -0.9436732721929995, -0.10514990193964646], [-0.5024419705599379, -0.9494579265224268, -0.8463262649216254], [0.10898177554581268, -0.9301095851915986, -0.4483839318873828], [0.9224587831303024, -0.8455818104975694, 0.29582382225025006], [0.8392872480876004, -0.8997617240325142, 0.018224168332643176]]" REF_oscillator="0.13827228808557357 -0.2584919146585214 0.2934683829522051 0.7846374107069571" pbc="F F F"
C        0.00000000       0.00000000       0.00000000
I        0.00000000      -1.09446000       3.00702000
H        0.00000000       1.03090000      -0.33980000
H        0.89270000      -0.51540000      -0.33980000
H       -0.89270000      -0.51540000      -0.33980000
5
Properties=species:S:1:pos:R:3 REF_energy="_JSON [[-194594.07961012863, -194594.07956414137, -194593.24882556053]]" REF_scalar="_JSON [[0.5827381004889438]]" REF_socs="_JSON [[-0.8724950552641593, -0.9473068415122794, 0.21958589258666028], [-0.0706965355082414, -0.15970398975132682, -0.7264795865626226], [-0.49213816204889405, -0.6174096710350285, 0.5429078665438594], [-0.391757571319441, 0.6105367334235403, 0.1913742477551903], [0.9391160691132265, -0.6306976454363891, -0.42935060984918216], [-0.32564837103108246, -0.3598013821354584, 0.9429288816975039], [-0.26584682363973, 0.8684088757971984, 0.039826827185202696], [0.8155430376859081, 0.46844425483206464, 0.6568437916485301]]" REF_dipoles="_JSON [[0.015192360444739483, 0.5746789749566292, 0.7029671125740407], [0.9995367803005115, 0.15095403409452035, -0.7643673608970363], [-0.7755545170420344, 0.7855234149616082, -0.0024475313019927114], [-0.19569741938588647, 0.21791816303413203, 0.15356329973111404], [-0.07827203256262583, -0.8499399999692157, -0.9646414014629043], [0.1630044576722518, 0.5316082292514082, 0.28417116297848466], [0.013022661483796716, -0.07787462672412082, 0.7250603890969547], [0.9596112711531153, -0.7748480530092812, -0.7194240595390198], [0.627768554144146, -0.953990224195747, 0.6037521295122186], [0.7599705872869742, -0.27864389968642733, 0.7693243716597693], [-0.9270765272058024, 0.452831510939258, 0.7708157940166964]]" REF_nacs="_JSON [[-0.24198625347481428, 0.31163101550309835, -0.7795317050000696], [0.3122520042152759, 0.5935712892644667, 0.950291493230526], [0.8334414533408072, 0.9759749150753365, -0.9991381673111182], [0.014743639475882864, 0.6448494257737323, -0.6840559965488517], [-0.9657474204790641, 0.10335851527918116, 0.31745195684815375], [0.06268640456824293, -0.23784497588222564, 0.8291869047121165]]" REF_oscillator="-0.6202874208859148 -0.9659990962625051 0.3275949814617236 0.8485009211475047" pbc="F F F"
C        0.00000000       0.00000000       0.00000000
I        0.00000000      -1.60000000       2.77128000
H        0.00000000       1.03090000      -0.33980000
H        0.89270000      -0.51540000      -0.33980000
H       -0.89270000      -0.51540000      -0.33980000
5
Properties=species:S:1:pos:R:3 REF_energy="_JSON [[-194589.5430810507, -194589.23591375514, -194589.11622801117]]" REF_scalar="_JSON [[0.9220061380352917]]" REF_socs="_JSON [[-0.3964829468214921, 0.6911990848176415, -0.2678247749322331], [-0.5853001521905421, -0.6306402366733641, -0.25252830860441344], [0.49680146795146807, 0.022944551067356045, -0.35416683811831806], [0.009681395038839913, 0.003709028107204082, -0.09119671584768119], [0.31751193033714564, -0.05523318574601799, -0.5368955015934667], [0.6348032628767317, -0.5797894028793118, -0.6581030800440837], [-0.2717004851350435, -0.7787735149910016, -0.12546412660838024], [0.7327396093005154, -0.33271475291006825, 0.694462339257693]]" REF_dipoles="_JSON [[-0.3328621410142014, 0.6732077687453788, 0.4011894906873372], [0.4378119004145309, -0.3030500850583371, 0.8102875969604804], [-0.37854068245724504, -0.8316656396124147, -0.4007999690168138], [0.5601226389384595, 0.7152457257533227, -0.8519795506137096], [-0.3205266430321623, -0.15793192842396842, -0.3225809573823981], [0.1227808419748484, 0.951854016487502, -0.5440799428215217], [0.3028934272849899, 0.4820923964129362, -0.7586554689339671], [-0.8103217052969423, -0.5253040398002937, 0.48639213829073347], [0.6336430609130068, 0.5174054742467293, 0.7134838903791956], [-0.6294180662794233, 0.8738836103916474, -0.7877054718663794], [0.40425259839867045, -0.00044155887750840783, 0.8341862267728517]]" REF_nacs="_JSON [[0.46728825578881494, -0.269720198732452, 0.3382555469218538], [0.19588036186512658, -0.47488602269836355, -0.9889601200109328], [-0.8548091454605267, 0.25039117315012693, -0.004998364595914628], [0.8039577988454221, 0.4835234539252331, 0.8112423687536674], [0.28199608418011923, -0.12647277402006463, -0.14843365990444157], [-0.6240166235504474, -0.848090478750684, -0.6825000014291707]]" REF_oscillator="0.7219096308852242 -0.9272770113829834 0.029371912648560095 -0.8587607827251535" pbc="F F F"
C        0.00000000       0.00000000       0.00000000
I        0.00000000       0.31257000       1.77265000
H        0.00000000       1.03090000      -0.33980000
H        0.89270000      -0.51540000      -0.33980000
H       -0.89270000      -0.51540000      -0.33980000
5
Properties=species:S:1:pos:R:3 REF_energy="_JSON [[-194589.1904557742, -194588.98640112788, -194588.69805132205]]" REF_scalar="_JSON [[0.14069015746658042]]" REF_socs="_JSON [[0.11529236005007704, 0.0824434445291804, -0.4532725586549844], [-0.1750458891562694, 0.41043678353475355, -0.6445521716833627], [0.15890102850551302, -0.9075831363823954, -0.26255855482978974], [-0.19490445600192996, -0.4161842410968828, -0.5261461849721207], [-0.9702522244909961, -0.5364537338423998, 0.6373192637380385], [-0.9590755356250409, 0.15183070663935627, 0.9159018315223613], [0.2357032608343661, -0.6854593479086486, -0.12130390051684437], [-0.35978636040398926, 0.597556467885147, -0.6200118970846427]]" REF_dipoles="_JSON [[-0.6739472321686084, -0.23260850101897934, -0.13951089497149027], [-0.20962570413506443, 0.9893834998637048, 0.4923425222451816], [-0.45904214187475323, 0.6051403160857196, -0.8677977952090883], [-0.690568842628644, 0.327006003969492, -0.049325038678635025], [-0.8954884680761142, 0.19506820168829675, 0.34812854067827925], [-0.5167822583301582, 0.9472964806085913, -0.8936599269447141], [-0.7424167926785603, 0.030235117780915477, -0.29836217143470267], [-0.5707491912262042, -0.8394795418028567, 0.10928008238189468], [0.23327353084449887, 0.508901790966511, 0.1559195621265992], [-0.04664725240118006, -0.3031317982842212, 0.26984095156725196], [-0.6194871918785707, -0.5531269863198371, 0.507407596430036]]" REF_nacs="_JSON [[0.3631628908282001, -0.8286929015527329, 0.32366588507139826], [0.44459467784559137, -0.2802110067361303, -0.49507327803066237], [0.5184719780458358, -0.834041163504011, 0.25652768128101755], [0.2907258948153226, 0.591080546419458, 0.32526871090978915], [0.14695391954907122, 0.10135796338801017, -0.6976081285358087], [-0.5786369975283017, 0.30442188545791526, -0.45260415688781586]]" REF_oscillator="-0.20824807143080926 0.2805210648395948 -0.4215453954792099 0.09263142624079479" pbc="F F F"
C        0.00000000       0.00000000       0.00000000
I        0.00000000       0.61564000       1.69145000
H        0.00000000       1.03090000      -0.33980000
H        0.89270000      -0.51540000      -0.33980000
H       -0.89270000      -0.51540000      -0.33980000
5
Properties=species:S:1:pos:R:3 REF_energy="_JSON [[-194589.6478130496, -194589.2773618662, -194589.27733547115]]" REF_scalar="_JSON [[0.5065789243117833]]" REF_socs="_JSON [[0.0363038327245071, 0.8790208228717706, -0.6779973040082561], [-0.2518440597170075, -0.07241864550789523, -0.20704475317261073], [-0.5700437940412122, -0.9064858944743457, -0.9685477302075243], [0.47924224646274705, 0.9027337068589905, -0.4738026916819822], [0.8963567671394819, -0.27543438431273093, -0.7384748320302732], [0.4857798679596743, 0.8037393460622217, 0.0021091575588603195], [0.43842016513788495, 0.7660752758416562, 0.8191100953780293], [0.6282186642858876, 0.42637228758945356, 0.026860250140532838]]" REF_dipoles="_JSON [[0.2054457923084987, -0.8119745726357015, 0.5365047434018622], [0.8329367519032798, 0.4769093507141746, 0.5029470468638595], [0.39781265727170867, -0.1887003738610049, 0.30147478710631415], [0.5402727105587806, -0.755560082893387, 0.5991678870463288], [0.6810433902180353, 0.6949696826191263, 0.7983476005551846], [-0.7985462363227618, -0.7069222520093752, 0.0870875143752099], [0.8846157417192879, 0.16355614726892664, -0.365997022609466], [-0.9912268200624439, 0.07646967719824627, 0.7073581824250001], [-0.1558977333817011, 0.06685698915537319, 0.39432912091263916], [-0.09508977192342005, 0.3926981280656876, -0.5891727308055521], [0.13134782378497212, 0.11616774386732365, -0.6984880646571714]]" REF_nacs="_JSON [[0.7140503346036644, 0.19698193180566448, -0.6288667329557798], [0.8158417836876466, -0.036483428150252406, -0.8206381738815542], [-0.33303316076026546, 0.21352070647669774, -0.1741321978381214], [0.9429693513468709, -0.5960572252068308, -0.16736456760833707], [-0.6765273609587301, -0.2832851674443493, -0.6665003609306619], [0.10910194684761376, 0.333931166313403, 0.929121717724128]]" REF_oscillator="0.33096974140053526 -0.34881323267888176 -0.62745954036177 -0.9212969768012123" pbc="F F F"
C        0.00000000       0.00000000       0.00000000
I        0.00000000       0.00000000       1.80000000
H        0.00000000       1.03090000      -0.33980000
H        0.89270000      -0.51540000      -0.33980000
H       -0.89270000      -0.51540000      -0.33980000
5
Properties=species:S:1:pos:R:3 REF_energy="_JSON [[-194588.28715612774, -194587.892566268, -194587.82818249598]]" REF_scalar="_JSON [[-0.3726982781852457]]" REF_socs="_JSON [[-0.35922935836553216, -0.14747831346882023, 0.5819073914237165], [0.9603591773576055, 0.521806732091525, -0.06393895384546755], [-0.1802536927215741, -0.7251087934084774, 0.02176838801388037], [0.4118963479636397, -0.692494044372548, 0.7208786007722696], [0.11773602400039196, -0.6272288427071515, -0.18852311921555942], [-0.29430250298954963, 0.029907926405656093, 0.29983096149358857], [0.24132490801069872, 0.6398323260358243, -0.8358235392549813], [0.0807237673909631, 0.055146384054509445, -0.21702365135847956]]" REF_dipoles="_JSON [[0.7669581952471876, -0.6441372677001473, -0.37332594506898764], [-0.154252769258582, -0.9037310678482515, 0.6682020150654968], [-0.13343946802134066, -0.5455130760015954, -0.40525596846078926], [0.9809814835464312, -0.24650049612848846, -0.89298597682682], [0.029804173207124363, 0.8719487422181151, -0.2871462678056389], [-0.12000560788138293, -0.41268331884256715, 0.8578352498547233], [-0.019495867231855923, -0.8363429905583277, 0.8505962433819234], [0.22795677781669887, -0.8853788085788314, -0.1795095203885544], [-0.4651192536099573, 0.1407681419848983, -0.2629285905670089], [-0.7517688674399428, 0.49179753411838867, 0.2908292602931106], [-0.9253034737248118, 0.2089227454531959, -0.44336096220458154]]" REF_nacs="_JSON [[-0.9152719543432393, 0.7101924913573374, 0.6800057946528906], [-0.15023035061782464, -0.18257911592360987, 0.9103916444561762], [-0.04277021143365989, -0.039539575161091634, 0.6408086479201884], [0.15172677823986125, -0.5097330408904086, -0.33555006583575153], [-0.9676447370626133, 0.3223988595001288, 0.32155613590946697], [-0.8026488699439127, -0.28919807979534373, 0.01933778554810983]]" REF_oscillator="0.932901411648132 -0.2702826535619858 0.7936456029984105 0.0868770965959258" pbc="F F F"
C        0.00000000       0.00000000       0.00000000
I        0.00000000      -1.15702000       1.37888000
H        0.00000000       1.03090000      -0.33980000
H        0.89270000      -0.51540000      -0.33980000
H       -0.89270000      -0.51540000      -0.33980000
5